HEADER,  post_rxn2.mol2  read w/ mol2SYBYL2lmp > atom_typing v1.10 / 10 May 2024 w/PCFF-IFF atom-types > all2lmp: v1.19 / 5 June 2024  Class: 2

21 atoms
20 bonds
32 angles
42 dihedrals
16 impropers

10 atom types
13 bond types
19 angle types
25 dihedral types
12 improper types

-4.881995238 5.061404762 xlo xhi
-2.401490476 2.530709524 ylo yhi
-2.084490476 2.440109524 zlo zhi

Masses

1   12.01115000  #  c1   
2   12.01115000  #  c2   
3   12.01115000  #  c3   
4   12.01115000  #  cp   
5    1.00797000  #  hc   
6    1.00797000  #  hn   
7    1.00797000  #  ho   
8   14.00670000  #  nn   
9   15.99940000  #  oc   
10  15.99940000  #  oh   

Pair Coeffs  # lj/class2/coul/long

1         0.05400000      4.01000000 #  c1   
2         0.05400000      4.01000000 #  c2   
3         0.05400000      3.90000000 #  c3   
4         0.06400000      4.01000000 #  cp   
5         0.02000000      2.30000000 #  hc   
6         0.01300000      1.09800000 #  hn   
7         0.01300000      1.09800000 #  ho   
8         0.06500000      4.07000000 #  nn   
9         0.24000000      3.53500000 #  oc   
10        0.24000000      3.53500000 #  oh   

Bond Coeffs  # class2

1         1.53000000    299.67000000   -501.77000000    679.81000000 #  c1          c2   
2         1.10100000    345.00000000   -691.89000000    844.60000000 #  c1          hc   
3         1.42000000    400.39540000   -835.19510000   1313.01420000 #  c1          oh   
4         1.50100000    321.90210000   -521.82080000    572.16280000 #  c2          cp   
5         1.10100000    345.00000000   -691.89000000    844.60000000 #  c2          hc   
6         1.47000000    356.59880000      0.00000000      0.00000000 #  c2          nn   
7         1.42000000    400.39540000   -835.19510000   1313.01420000 #  c2          oc   
8         1.50100000    321.90210000   -521.82080000    572.16280000 #  c3          cp   
9         1.41700000    470.83610000   -627.61790000   1327.63450000 #  cp          cp   
10        1.39120000    447.04380000   -784.53460000    886.16710000 #  cp          nn   
11        1.37680000    428.87980000   -738.23510000   1114.96550000 #  cp          oc   
12        1.00120000    465.86080000  -1066.23600000   1496.56470000 #  hn          nn   
13        0.96500000    532.50620000  -1282.90500000   2004.76580000 #  ho          oh   

Angle Coeffs  # class2

1       110.77000000     41.45300000    -10.60400000      5.12900000 #  c1         c2         hc   
2       114.00000000     50.00000000      0.00000000      0.00000000 #  c1         c2         nn   
3       111.27000000     54.53810000     -8.36420000    -13.08380000 #  c1         c2         oc   
4       105.80000000     52.70610000    -12.10900000     -9.86810000 #  c1         oh         ho   
5       112.67000000     39.51600000     -7.44300000     -9.55830000 #  c2         c1         c2   
6       110.77000000     41.45300000    -10.60400000      5.12900000 #  c2         c1         hc   
7       111.27000000     54.53810000     -8.36420000    -13.08380000 #  c2         c1         oh   
8       120.05000000     44.71480000    -22.73520000      0.00000000 #  c2         cp         cp   
9       120.00000000     50.00000000      0.00000000      0.00000000 #  c2         nn         cp   
10      122.00000000     35.00000000      0.00000000      0.00000000 #  c2         nn         hn   
11      102.96950000     38.97390000     -6.25950000     -8.17100000 #  c2         oc         cp   
12      120.05000000     44.71480000    -22.73520000      0.00000000 #  c3         cp         cp   
13      118.90000000     61.02260000    -34.99310000      0.00000000 #  cp         cp         cp   
14      121.45840000     61.06470000    -21.61720000      0.00000000 #  cp         cp         nn   
15      111.87250000     40.83690000    -15.66730000      0.00000000 #  cp         nn         hn   
16      108.72800000     58.54460000    -10.80880000    -12.40060000 #  hc         c1         oh   
17      107.66000000     39.64100000    -12.92100000     -2.43180000 #  hc         c2         hc   
18      109.50000000     50.00000000      0.00000000      0.00000000 #  hc         c2         nn   
19      108.72800000     58.54460000    -10.80880000    -12.40060000 #  hc         c2         oc   

Dihedral Coeffs  # class2

1        -0.14320000      0.00000000      0.06170000      0.00000000     -0.10830000      0.00000000 #  hc         c1        c2         hc   
2         0.00000000      0.00000000      0.03160000      0.00000000     -0.16810000      0.00000000 #  c2         c1        c2         hc   
3         0.00000000      0.00000000      0.00000000      0.00000000      0.15800000      0.00000000 #  hc         c1        c2         nn   
4         0.00000000      0.00000000      0.00000000      0.00000000      0.15800000      0.00000000 #  c2         c1        c2         nn   
5        -0.14350000      0.00000000      0.25300000      0.00000000     -0.09050000      0.00000000 #  hc         c1        c2         oc   
6         0.71370000      0.00000000      0.26600000      0.00000000     -0.25450000      0.00000000 #  c2         c1        c2         oc   
7        -0.67320000      0.00000000     -0.47780000      0.00000000     -0.16700000      0.00000000 #  c2         c1        oh         ho   
8         0.18630000      0.00000000     -0.43380000      0.00000000     -0.21210000      0.00000000 #  hc         c1        oh         ho   
9         0.00000000      0.00000000      0.00000000      0.00000000      0.15800000      0.00000000 #  nn         c2        c1         oh   
10       -0.14350000      0.00000000      0.25300000      0.00000000     -0.09050000      0.00000000 #  hc         c2        c1         oh   
11       -0.18200000      0.00000000     -0.10840000      0.00000000     -0.70470000      0.00000000 #  oc         c2        c1         oh   
12        0.00000000      0.00000000      0.00000000      0.00000000      0.00000000      0.00000000 #  c1         c2        nn         cp   
13        0.00000000      0.00000000      0.00000000      0.00000000      0.00000000      0.00000000 #  c1         c2        nn         hn   
14        0.00000000      0.00000000      0.00000000      0.00000000      0.00000000      0.00000000 #  hc         c2        nn         hn   
15        0.00000000      0.00000000      0.00000000      0.00000000      0.13000000      0.00000000 #  c1         c2        oc         cp   
16        0.00000000      0.00000000      4.40720000      0.00000000      0.00000000      0.00000000 #  c3         cp        cp         cp   
17        0.00000000      0.00000000      4.40720000      0.00000000      0.00000000      0.00000000 #  c2         cp        cp         cp   
18        8.36670000      0.00000000      1.19320000      0.00000000      0.00000000      0.00000000 #  cp         cp        cp         cp   
19        0.00000000      0.00000000      5.38260000      0.00000000      0.00000000      0.00000000 #  cp         cp        cp         nn   
20        0.00000000      0.00000000      3.00000000      0.00000000      0.00000000      0.00000000 #  c3         cp        cp         nn   
21        0.00000000      0.00000000      3.00000000      0.00000000      0.00000000      0.00000000 #  c2         cp        cp         nn   
22        0.00000000      0.00000000      1.21900000      0.00000000      0.00000000      0.00000000 #  cp         cp        nn         hn   
23        0.00000000      0.00000000      0.00000000      0.00000000      0.00000000      0.00000000 #  hc         c2        nn         cp   
24        0.00000000      0.00000000      2.25000000      0.00000000      0.00000000      0.00000000 #  cp         cp        nn         c2   
25        0.95130000      0.00000000      0.11550000      0.00000000      0.07200000      0.00000000 #  hc         c2        oc         cp   

Improper Coeffs  # class2

1         7.81530000      0.00000000 #  c2         cp        cp        cp      nb==3   
2         0.10000000      0.00000000 #  c2         nn        cp        hn      nb==3   
3         7.81530000      0.00000000 #  c3         cp        cp        cp      nb==3   
4        10.78550000      0.00000000 #  cp         cp        cp        nn      nb==3   
5         0.00000000      0.00000000 #  c1         c2        hc        hc      nb!=3   
6         0.00000000      0.00000000 #  c1         c2        hc        nn      nb!=3   
7         0.00000000      0.00000000 #  c1         c2        hc        oc      nb!=3   
8         0.00000000      0.00000000 #  c2         c1        c2        hc      nb!=3   
9         0.00000000      0.00000000 #  c2         c1        c2        oh      nb!=3   
10        0.00000000      0.00000000 #  c2         c1        hc        oh      nb!=3   
11        0.00000000      0.00000000 #  hc         c2        hc        nn      nb!=3   
12        0.00000000      0.00000000 #  hc         c2        hc        oc      nb!=3   

BondBond Coeffs  # class2

1         3.38720000      1.53000000      1.10100000 #  c1         c2         hc   
2         0.00000000      1.53000000      1.47000000 #  c1         c2         nn   
3        11.43180000      1.53000000      1.42000000 #  c1         c2         oc   
4        -9.68790000      1.42000000      0.96500000 #  c1         oh         ho   
5         0.00000000      1.53000000      1.53000000 #  c2         c1         c2   
6         3.38720000      1.53000000      1.10100000 #  c2         c1         hc   
7        11.43180000      1.53000000      1.42000000 #  c2         c1         oh   
8        12.06760000      1.50100000      1.41700000 #  c2         cp         cp   
9         0.00000000      1.47000000      1.39120000 #  c2         nn         cp   
10        0.00000000      1.47000000      1.00120000 #  c2         nn         hn   
11        0.00000000      1.42000000      1.37680000 #  c2         oc         cp   
12       12.06760000      1.50100000      1.41700000 #  c3         cp         cp   
13       68.28560000      1.41700000      1.41700000 #  cp         cp         cp   
14       46.95130000      1.41700000      1.39120000 #  cp         cp         nn   
15        4.53930000      1.39120000      1.00120000 #  cp         nn         hn   
16       23.19790000      1.10100000      1.42000000 #  hc         c1         oh   
17        5.33160000      1.10100000      1.10100000 #  hc         c2         hc   
18        0.00000000      1.10100000      1.47000000 #  hc         c2         nn   
19       23.19790000      1.10100000      1.42000000 #  hc         c2         oc   

BondAngle Coeffs  # class2

1        20.75400000     11.42100000      1.53000000      1.10100000 #  c1         c2         hc   
2         0.00000000      0.00000000      1.53000000      1.47000000 #  c1         c2         nn   
3         2.68680000     20.40330000      1.53000000      1.42000000 #  c1         c2         oc   
4        28.58000000     18.92770000      1.42000000      0.96500000 #  c1         oh         ho   
5         8.01600000      8.01600000      1.53000000      1.53000000 #  c2         c1         c2   
6        20.75400000     11.42100000      1.53000000      1.10100000 #  c2         c1         hc   
7         2.68680000     20.40330000      1.53000000      1.42000000 #  c2         c1         oh   
8        47.05790000     31.07710000      1.50100000      1.41700000 #  c2         cp         cp   
9         0.00000000      0.00000000      1.47000000      1.39120000 #  c2         nn         cp   
10        0.00000000      0.00000000      1.47000000      1.00120000 #  c2         nn         hn   
11        0.00000000      0.00000000      1.42000000      1.37680000 #  c2         oc         cp   
12       47.05790000     31.07710000      1.50100000      1.41700000 #  c3         cp         cp   
13       28.87080000     28.87080000      1.41700000      1.41700000 #  cp         cp         cp   
14       39.40400000     73.65480000      1.41700000      1.39120000 #  cp         cp         nn   
15       38.57040000     16.55240000      1.39120000      1.00120000 #  cp         nn         hn   
16        4.61890000     55.32700000      1.10100000      1.42000000 #  hc         c1         oh   
17       18.10300000     18.10300000      1.10100000      1.10100000 #  hc         c2         hc   
18        0.00000000      0.00000000      1.10100000      1.47000000 #  hc         c2         nn   
19        4.61890000     55.32700000      1.10100000      1.42000000 #  hc         c2         oc   

AngleAngleTorsion Coeffs  # class2

1       -12.56400000    110.77000000    110.77000000 #  hc         c1        c2         hc   
2       -16.16400000    112.67000000    110.77000000 #  c2         c1        c2         hc   
3         0.00000000    110.77000000    114.00000000 #  hc         c1        c2         nn   
4         0.00000000    112.67000000    114.00000000 #  c2         c1        c2         nn   
5       -20.20060000    110.77000000    111.27000000 #  hc         c1        c2         oc   
6       -29.04200000    112.67000000    111.27000000 #  c2         c1        c2         oc   
7       -12.10380000    111.27000000    105.80000000 #  c2         c1        oh         ho   
8       -10.50930000    108.72800000    105.80000000 #  hc         c1        oh         ho   
9         0.00000000    114.00000000    111.27000000 #  nn         c2        c1         oh   
10      -20.20060000    110.77000000    111.27000000 #  hc         c2        c1         oh   
11      -14.04840000    111.27000000    111.27000000 #  oc         c2        c1         oh   
12        0.00000000    114.00000000    120.00000000 #  c1         c2        nn         cp   
13        0.00000000    114.00000000    122.00000000 #  c1         c2        nn         hn   
14        0.00000000    109.50000000    122.00000000 #  hc         c2        nn         hn   
15        0.00000000    111.27000000    102.96950000 #  c1         c2        oc         cp   
16      -14.40970000    120.05000000    118.90000000 #  c3         cp        cp         cp   
17      -14.40970000    120.05000000    118.90000000 #  c2         cp        cp         cp   
18        0.00000000    118.90000000    118.90000000 #  cp         cp        cp         cp   
19        0.00000000    118.90000000    121.45840000 #  cp         cp        cp         nn   
20        0.00000000    120.05000000    121.45840000 #  c3         cp        cp         nn   
21        0.00000000    120.05000000    121.45840000 #  c2         cp        cp         nn   
22       -7.17550000    121.45840000    111.87250000 #  cp         cp        nn         hn   
23        0.00000000    109.50000000    120.00000000 #  hc         c2        nn         cp   
24        0.00000000    121.45840000    120.00000000 #  cp         cp        nn         c2   
25        0.00000000    108.72800000    102.96950000 #  hc         c2        oc         cp   

EndBondTorsion Coeffs  # class2

1         0.21300000      0.31200000      0.07770000      0.21300000      0.31200000      0.07770000      1.10100000      1.10100000 #  hc         c1        c2         hc   
2         0.24860000      0.24220000     -0.09250000      0.08140000      0.05910000      0.22190000      1.53000000      1.10100000 #  c2         c1        c2         hc   
3         0.00000000      0.00000000      0.00000000      0.00000000      0.00000000      0.00000000      1.10100000      1.47000000 #  hc         c1        c2         nn   
4         0.00000000      0.00000000      0.00000000      0.00000000      0.00000000      0.00000000      1.53000000      1.47000000 #  c2         c1        c2         nn   
5         0.96810000      0.95510000      0.04360000      0.59030000      0.66690000      0.85840000      1.10100000      1.42000000 #  hc         c1        c2         oc   
6        -0.31900000      0.44110000     -0.71740000      1.15380000      0.84090000     -0.91380000      1.53000000      1.42000000 #  c2         c1        c2         oc   
7        -0.58000000      0.90040000      0.00000000      0.00000000      0.53430000      0.90250000      1.53000000      0.96500000 #  c2         c1        oh         ho   
8        -1.75540000      1.31450000      0.22630000      0.24930000      0.68030000      0.00000000      1.10100000      0.96500000 #  hc         c1        oh         ho   
9         0.00000000      0.00000000      0.00000000      0.00000000      0.00000000      0.00000000      1.47000000      1.42000000 #  nn         c2        c1         oh   
10        0.96810000      0.95510000      0.04360000      0.59030000      0.66690000      0.85840000      1.10100000      1.42000000 #  hc         c2        c1         oh   
11        1.01650000      0.75530000     -0.46090000      1.01650000      0.75530000     -0.46090000      1.42000000      1.42000000 #  oc         c2        c1         oh   
12        0.00000000      0.00000000      0.00000000      0.00000000      0.00000000      0.00000000      1.53000000      1.39120000 #  c1         c2        nn         cp   
13        0.00000000      0.00000000      0.00000000      0.00000000      0.00000000      0.00000000      1.53000000      1.00120000 #  c1         c2        nn         hn   
14        0.00000000      0.00000000      0.00000000      0.00000000      0.00000000      0.00000000      1.10100000      1.00120000 #  hc         c2        nn         hn   
15        0.00000000      0.00000000      0.00000000      0.00000000      0.00000000      0.00000000      1.53000000      1.37680000 #  c1         c2        oc         cp   
16        0.00000000      0.24210000      0.00000000      0.00000000     -0.69180000      0.00000000      1.50100000      1.41700000 #  c3         cp        cp         cp   
17        0.00000000      0.24210000      0.00000000      0.00000000     -0.69180000      0.00000000      1.50100000      1.41700000 #  c2         cp        cp         cp   
18       -0.11850000      6.32040000      0.00000000     -0.11850000      6.32040000      0.00000000      1.41700000      1.41700000 #  cp         cp        cp         cp   
19        0.00000000     -6.54040000      0.00000000      0.00000000     -7.34770000      0.00000000      1.41700000      1.39120000 #  cp         cp        cp         nn   
20        0.00000000      0.00000000      0.00000000      0.00000000      0.00000000      0.00000000      1.50100000      1.39120000 #  c3         cp        cp         nn   
21        0.00000000      0.00000000      0.00000000      0.00000000      0.00000000      0.00000000      1.50100000      1.39120000 #  c2         cp        cp         nn   
22        0.00000000     -3.72810000      0.00000000      0.00000000      0.28490000      0.00000000      1.41700000      1.00120000 #  cp         cp        nn         hn   
23        0.00000000      0.00000000      0.00000000      0.00000000      0.00000000      0.00000000      1.10100000      1.39120000 #  hc         c2        nn         cp   
24        0.00000000      0.00000000      0.00000000      0.00000000      0.00000000      0.00000000      1.41700000      1.47000000 #  cp         cp        nn         c2   
25        0.00000000      0.00000000      0.00000000      0.00000000      0.00000000      0.00000000      1.10100000      1.37680000 #  hc         c2        oc         cp   

MiddleBondTorsion Coeffs  # class2

1       -14.26100000     -0.53220000     -0.48640000      1.53000000 #  hc         c1        c2         hc   
2       -14.87900000     -3.65810000     -0.31380000      1.53000000 #  c2         c1        c2         hc   
3         0.00000000      0.00000000      0.00000000      1.53000000 #  hc         c1        c2         nn   
4         0.00000000      0.00000000      0.00000000      1.53000000 #  c2         c1        c2         nn   
5       -16.79750000     -1.22960000     -0.27500000      1.53000000 #  hc         c1        c2         oc   
6       -21.88420000     -7.67640000     -0.68680000      1.53000000 #  c2         c1        c2         oc   
7         1.24720000      0.00000000      0.74850000      1.42000000 #  c2         c1        oh         ho   
8         0.00000000      0.92410000     -0.58890000      1.42000000 #  hc         c1        oh         ho   
9         0.00000000      0.00000000      0.00000000      1.53000000 #  nn         c2        c1         oh   
10      -16.79750000     -1.22960000     -0.27500000      1.53000000 #  hc         c2        c1         oh   
11      -17.25850000     -3.61570000     -0.83640000      1.53000000 #  oc         c2        c1         oh   
12        0.00000000      0.00000000      0.00000000      1.47000000 #  c1         c2        nn         cp   
13        0.00000000      0.00000000      0.00000000      1.47000000 #  c1         c2        nn         hn   
14        0.00000000      0.00000000      0.00000000      1.47000000 #  hc         c2        nn         hn   
15        0.00000000      0.00000000      0.00000000      1.42000000 #  c1         c2        oc         cp   
16        0.00000000      9.17920000      0.00000000      1.41700000 #  c3         cp        cp         cp   
17        0.00000000      9.17920000      0.00000000      1.41700000 #  c2         cp        cp         cp   
18       27.59890000     -2.31200000      0.00000000      1.41700000 #  cp         cp        cp         cp   
19        0.00000000     -0.56930000      0.00000000      1.41700000 #  cp         cp        cp         nn   
20        0.00000000      0.00000000      0.00000000      1.41700000 #  c3         cp        cp         nn   
21        0.00000000      0.00000000      0.00000000      1.41700000 #  c2         cp        cp         nn   
22        0.00000000      3.20850000      0.00000000      1.39120000 #  cp         cp        nn         hn   
23        0.00000000      0.00000000      0.00000000      1.47000000 #  hc         c2        nn         cp   
24        0.00000000      0.00000000      0.00000000      1.39120000 #  cp         cp        nn         c2   
25        0.00000000      0.00000000      0.00000000      1.42000000 #  hc         c2        oc         cp   

BondBond13 Coeffs  # class2

1         0.00000000      1.10100000      1.10100000 #  hc         c1        c2         hc   
2         0.00000000      1.53000000      1.10100000 #  c2         c1        c2         hc   
3         0.00000000      1.10100000      1.47000000 #  hc         c1        c2         nn   
4         0.00000000      1.53000000      1.47000000 #  c2         c1        c2         nn   
5         0.00000000      1.10100000      1.42000000 #  hc         c1        c2         oc   
6         0.00000000      1.53000000      1.42000000 #  c2         c1        c2         oc   
7         0.00000000      1.53000000      0.96500000 #  c2         c1        oh         ho   
8         0.00000000      1.10100000      0.96500000 #  hc         c1        oh         ho   
9         0.00000000      1.47000000      1.42000000 #  nn         c2        c1         oh   
10        0.00000000      1.10100000      1.42000000 #  hc         c2        c1         oh   
11        0.00000000      1.42000000      1.42000000 #  oc         c2        c1         oh   
12        0.00000000      1.53000000      1.39120000 #  c1         c2        nn         cp   
13        0.00000000      1.53000000      1.00120000 #  c1         c2        nn         hn   
14        0.00000000      1.10100000      1.00120000 #  hc         c2        nn         hn   
15        0.00000000      1.53000000      1.37680000 #  c1         c2        oc         cp   
16        2.50850000      1.50100000      1.41700000 #  c3         cp        cp         cp   
17        2.50850000      1.50100000      1.41700000 #  c2         cp        cp         cp   
18       53.00000000      1.41700000      1.41700000 #  cp         cp        cp         cp   
19       -9.79990000      1.41700000      1.39120000 #  cp         cp        cp         nn   
20        0.00000000      1.50100000      1.39120000 #  c3         cp        cp         nn   
21        0.00000000      1.50100000      1.39120000 #  c2         cp        cp         nn   
22        4.23660000      1.41700000      1.00120000 #  cp         cp        nn         hn   
23        0.00000000      1.10100000      1.39120000 #  hc         c2        nn         cp   
24        0.00000000      1.41700000      1.47000000 #  cp         cp        nn         c2   
25        0.00000000      1.10100000      1.37680000 #  hc         c2        oc         cp   

AngleTorsion Coeffs  # class2

1        -0.80850000      0.55690000     -0.24660000     -0.80850000      0.55690000     -0.24660000    110.77000000    110.77000000 #  hc         c1        c2         hc   
2        -0.24540000      0.00000000     -0.11360000      0.31130000      0.45160000     -0.19880000    112.67000000    110.77000000 #  c2         c1        c2         hc   
3         0.00000000      0.00000000      0.00000000      0.00000000      0.00000000      0.00000000    110.77000000    114.00000000 #  hc         c1        c2         nn   
4         0.00000000      0.00000000      0.00000000      0.00000000      0.00000000      0.00000000    112.67000000    114.00000000 #  c2         c1        c2         nn   
5         2.36680000      2.49200000     -1.01220000     -0.18920000      0.49180000      0.72730000    110.77000000    111.27000000 #  hc         c1        c2         oc   
6         0.56230000     -0.30410000     -0.40150000      0.96720000     -0.75660000     -1.23310000    112.67000000    111.27000000 #  c2         c1        c2         oc   
7        -3.59030000      2.52250000      0.48880000      0.87260000     -0.35770000      0.38880000    111.27000000    105.80000000 #  c2         c1        oh         ho   
8        -3.40600000      1.63960000      0.07370000      0.00000000     -0.28100000     -0.59440000    108.72800000    105.80000000 #  hc         c1        oh         ho   
9         0.00000000      0.00000000      0.00000000      0.00000000      0.00000000      0.00000000    114.00000000    111.27000000 #  nn         c2        c1         oh   
10        2.36680000      2.49200000     -1.01220000     -0.18920000      0.49180000      0.72730000    110.77000000    111.27000000 #  hc         c2        c1         oh   
11        0.55110000      0.97370000     -0.66730000      0.55110000      0.97370000     -0.66730000    111.27000000    111.27000000 #  oc         c2        c1         oh   
12        0.00000000      0.00000000      0.00000000      0.00000000      0.00000000      0.00000000    114.00000000    120.00000000 #  c1         c2        nn         cp   
13        0.00000000      0.00000000      0.00000000      0.00000000      0.00000000      0.00000000    114.00000000    122.00000000 #  c1         c2        nn         hn   
14        0.00000000      0.00000000      0.00000000      0.00000000      0.00000000      0.00000000    109.50000000    122.00000000 #  hc         c2        nn         hn   
15        0.00000000      0.00000000      0.00000000      0.00000000      0.00000000      0.00000000    111.27000000    102.96950000 #  c1         c2        oc         cp   
16        0.00000000     -4.46830000      0.00000000      0.00000000      3.89870000      0.00000000    120.05000000    118.90000000 #  c3         cp        cp         cp   
17        0.00000000     -4.46830000      0.00000000      0.00000000      3.89870000      0.00000000    120.05000000    118.90000000 #  c2         cp        cp         cp   
18        1.97670000      1.02390000      0.00000000      1.97670000      1.02390000      0.00000000    118.90000000    118.90000000 #  cp         cp        cp         cp   
19        0.00000000      9.09010000      0.00000000      0.00000000     -6.08820000      0.00000000    118.90000000    121.45840000 #  cp         cp        cp         nn   
20        0.00000000      0.00000000      0.00000000      0.00000000      0.00000000      0.00000000    120.05000000    121.45840000 #  c3         cp        cp         nn   
21        0.00000000      0.00000000      0.00000000      0.00000000      0.00000000      0.00000000    120.05000000    121.45840000 #  c2         cp        cp         nn   
22        0.00000000      1.26160000      0.00000000      0.00000000      0.77440000      0.00000000    121.45840000    111.87250000 #  cp         cp        nn         hn   
23        0.00000000      0.00000000      0.00000000      0.00000000      0.00000000      0.00000000    109.50000000    120.00000000 #  hc         c2        nn         cp   
24        0.00000000      0.00000000      0.00000000      0.00000000      0.00000000      0.00000000    121.45840000    120.00000000 #  cp         cp        nn         c2   
25        0.00000000      0.00000000      0.00000000      0.00000000      0.00000000      0.00000000    108.72800000    102.96950000 #  hc         c2        oc         cp   

AngleAngle Coeffs  # class2

1         0.00000000      0.00000000      0.00000000    120.05000000    118.90000000    120.05000000 #  c2         cp        cp        cp      nb==3   
2         0.00000000      0.00000000      0.00000000    120.00000000    111.87250000    122.00000000 #  c2         nn        cp        hn      nb==3   
3         0.00000000      0.00000000      0.00000000    120.05000000    118.90000000    120.05000000 #  c3         cp        cp        cp      nb==3   
4         0.00000000      0.00000000      0.00000000    118.90000000    121.45840000    121.45840000 #  cp         cp        cp        nn      nb==3   
5         0.27380000     -0.48250000      0.27380000    110.77000000    110.77000000    107.66000000 #  c1         c2        hc        hc      nb!=3   