HEADER,  pre_rxn1.mol2  read w/ mol2SYBYL2lmp > atom_typing v1.10 / 10 May 2024 w/PCFF-IFF atom-types > all2lmp: v1.19 / 5 June 2024  Class: 2

21 atoms
20 bonds
32 angles
36 dihedrals
16 impropers

9 atom types
12 bond types
19 angle types
21 dihedral types
13 improper types

-4.898895238 5.614404762 xlo xhi
-2.557500000 2.714600000 ylo yhi
-2.414290476 3.387809524 zlo zhi

Masses

1   12.01115000  #  c2   
2   12.01115000  #  c3   
3   12.01115000  #  c3h  
4   12.01115000  #  cp   
5    1.00797000  #  hc   
6    1.00797000  #  hn   
7   14.00670000  #  nn   
8   15.99940000  #  o3e  
9   15.99940000  #  oc   

Pair Coeffs  # lj/class2/coul/long

1         0.05400000      4.01000000 #  c2   
2         0.05400000      3.90000000 #  c3   
3         0.05400000      4.01000000 #  c3h  
4         0.06400000      4.01000000 #  cp   
5         0.02000000      2.30000000 #  hc   
6         0.01300000      1.09800000 #  hn   
7         0.06500000      4.07000000 #  nn   
8         0.24000000      3.53500000 #  o3e  
9         0.24000000      3.53500000 #  oc   

Bond Coeffs  # class2

1         1.53000000    299.67000000   -501.77000000    679.81000000 #  c2         c3h   
2         1.50100000    321.90210000   -521.82080000    572.16280000 #  c2          cp   
3         1.10100000    345.00000000   -691.89000000    844.60000000 #  c2          hc   
4         1.42000000    400.39540000   -835.19510000   1313.01420000 #  c2          oc   
5         1.50100000    321.90210000   -521.82080000    572.16280000 #  c3          cp   
6         1.53000000    299.67000000   -501.77000000    679.81000000 #  c3h        c3h   
7         1.10100000    345.00000000   -691.89000000    844.60000000 #  c3h         hc   
8         1.42000000    400.39540000   -835.19510000   1313.01420000 #  c3h        o3e   
9         1.41700000    470.83610000   -627.61790000   1327.63450000 #  cp          cp   
10        1.39120000    447.04380000   -784.53460000    886.16710000 #  cp          nn   
11        1.37680000    428.87980000   -738.23510000   1114.96550000 #  cp          oc   
12        1.00120000    465.86080000  -1066.23600000   1496.56470000 #  hn          nn   

Angle Coeffs  # class2

1       112.67000000     39.51600000     -7.44300000     -9.55830000 #  c2        c3h        c3h   
2       110.77000000     41.45300000    -10.60400000      5.12900000 #  c2        c3h         hc   
3       111.27000000     54.53810000     -8.36420000    -13.08380000 #  c2        c3h        o3e   
4       120.05000000     44.71480000    -22.73520000      0.00000000 #  c2         cp         cp   
5       102.96950000     38.97390000     -6.25950000     -8.17100000 #  c2         oc         cp   
6       120.05000000     44.71480000    -22.73520000      0.00000000 #  c3         cp         cp   
7       110.77000000     41.45300000    -10.60400000      5.12900000 #  c3h        c2         hc   
8       111.27000000     54.53810000     -8.36420000    -13.08380000 #  c3h        c2         oc   
9       110.77000000     41.45300000    -10.60400000      5.12900000 #  c3h       c3h         hc   
10      111.27000000     54.53810000     -8.36420000    -13.08380000 #  c3h       c3h        o3e   
11      104.50000000     35.74540000    -10.00670000     -6.27290000 #  c3h       o3e        c3h   
12      118.90000000     61.02260000    -34.99310000      0.00000000 #  cp         cp         cp   
13      121.45840000     61.06470000    -21.61720000      0.00000000 #  cp         cp         nn   
14      111.87250000     40.83690000    -15.66730000      0.00000000 #  cp         nn         hn   
15      107.66000000     39.64100000    -12.92100000     -2.43180000 #  hc         c2         hc   
16      108.72800000     58.54460000    -10.80880000    -12.40060000 #  hc         c2         oc   
17      107.66000000     39.64100000    -12.92100000     -2.43180000 #  hc        c3h         hc   
18      108.72800000     58.54460000    -10.80880000    -12.40060000 #  hc        c3h        o3e   
19      107.51300000     42.51820000    -21.75660000     -4.33720000 #  hn         nn         hn   

Dihedral Coeffs  # class2

1        -0.14320000      0.00000000      0.06170000      0.00000000     -0.10830000      0.00000000 #  hc         c2       c3h         hc   
2        -0.14350000      0.00000000      0.25300000      0.00000000     -0.09050000      0.00000000 #  hc         c2       c3h        o3e   
3         0.00000000      0.00000000      0.00000000      0.00000000      0.13000000      0.00000000 #  c3h        c2        oc         cp   
4         0.00000000      0.00000000      0.03160000      0.00000000     -0.16810000      0.00000000 #  c3h       c3h        c2         hc   
5        -0.14350000      0.00000000      0.25300000      0.00000000     -0.09050000      0.00000000 #  hc        c3h        c2         oc   
6        -0.18200000      0.00000000     -0.10840000      0.00000000     -0.70470000      0.00000000 #  o3e       c3h        c2         oc   
7         0.71370000      0.00000000      0.26600000      0.00000000     -0.25450000      0.00000000 #  c3h       c3h        c2         oc   
8        -0.14320000      0.00000000      0.06170000      0.00000000     -0.10830000      0.00000000 #  hc        c3h       c3h         hc   
9         0.00000000      0.00000000      0.03160000      0.00000000     -0.16810000      0.00000000 #  c2        c3h       c3h         hc   
10       -0.14350000      0.00000000      0.25300000      0.00000000     -0.09050000      0.00000000 #  hc        c3h       c3h        o3e   
11        0.71370000      0.00000000      0.26600000      0.00000000     -0.25450000      0.00000000 #  c2        c3h       c3h        o3e   
12       -0.52030000      0.00000000     -0.30280000      0.00000000     -0.34500000      0.00000000 #  c2        c3h       o3e        c3h   
13        0.00000000      0.00000000      4.40720000      0.00000000      0.00000000      0.00000000 #  c3         cp        cp         cp   
14        0.00000000      0.00000000      4.40720000      0.00000000      0.00000000      0.00000000 #  c2         cp        cp         cp   
15        8.36670000      0.00000000      1.19320000      0.00000000      0.00000000      0.00000000 #  cp         cp        cp         cp   
16        0.00000000      0.00000000      5.38260000      0.00000000      0.00000000      0.00000000 #  cp         cp        cp         nn   
17        0.00000000      0.00000000      3.00000000      0.00000000      0.00000000      0.00000000 #  c3         cp        cp         nn   
18        0.00000000      0.00000000      3.00000000      0.00000000      0.00000000      0.00000000 #  c2         cp        cp         nn   
19        0.00000000      0.00000000      1.21900000      0.00000000      0.00000000      0.00000000 #  cp         cp        nn         hn   
20        0.53020000      0.00000000      0.00000000      0.00000000     -0.39660000      0.00000000 #  hc        c3h       o3e        c3h   
21        0.95130000      0.00000000      0.11550000      0.00000000      0.07200000      0.00000000 #  hc         c2        oc         cp   

Improper Coeffs  # class2

1         7.81530000      0.00000000 #  c2         cp        cp        cp      nb==3   
2         7.81530000      0.00000000 #  c3         cp        cp        cp      nb==3   
3        10.78550000      0.00000000 #  cp         cp        cp        nn      nb==3   
4         0.00000000      0.00000000 #  cp         nn        hn        hn      nb==3   
5         0.00000000      0.00000000 #  c2        c3h       c3h        hc      nb!=3   
6         0.00000000      0.00000000 #  c2        c3h       c3h       o3e      nb!=3   
7         0.00000000      0.00000000 #  c2        c3h        hc       o3e      nb!=3   
8         0.00000000      0.00000000 #  c3h        c2        hc        hc      nb!=3   
9         0.00000000      0.00000000 #  c3h        c2        hc        oc      nb!=3   
10        0.00000000      0.00000000 #  c3h       c3h        hc        hc      nb!=3   
11        0.00000000      0.00000000 #  c3h       c3h        hc       o3e      nb!=3   
12        0.00000000      0.00000000 #  hc         c2        hc        oc      nb!=3   
13        0.00000000      0.00000000 #  hc        c3h        hc       o3e      nb!=3   

BondBond Coeffs  # class2

1         0.00000000      1.53000000      1.53000000 #  c2        c3h        c3h   
2         3.38720000      1.53000000      1.10100000 #  c2        c3h         hc   
3        11.43180000      1.53000000      1.42000000 #  c2        c3h        o3e   
4        12.06760000      1.50100000      1.41700000 #  c2         cp         cp   
5         0.00000000      1.42000000      1.37680000 #  c2         oc         cp   
6        12.06760000      1.50100000      1.41700000 #  c3         cp         cp   
7         3.38720000      1.53000000      1.10100000 #  c3h        c2         hc   
8        11.43180000      1.53000000      1.42000000 #  c3h        c2         oc   
9         3.38720000      1.53000000      1.10100000 #  c3h       c3h         hc   
10       11.43180000      1.53000000      1.42000000 #  c3h       c3h        o3e   
11       -7.11310000      1.42000000      1.42000000 #  c3h       o3e        c3h   
12       68.28560000      1.41700000      1.41700000 #  cp         cp         cp   
13       46.95130000      1.41700000      1.39120000 #  cp         cp         nn   
14        4.53930000      1.39120000      1.00120000 #  cp         nn         hn   
15        5.33160000      1.10100000      1.10100000 #  hc         c2         hc   
16       23.19790000      1.10100000      1.42000000 #  hc         c2         oc   
17        5.33160000      1.10100000      1.10100000 #  hc        c3h         hc   
18       23.19790000      1.10100000      1.42000000 #  hc        c3h        o3e   
19       -9.94470000      1.00120000      1.00120000 #  hn         nn         hn   

BondAngle Coeffs  # class2

1         8.01600000      8.01600000      1.53000000      1.53000000 #  c2        c3h        c3h   
2        20.75400000     11.42100000      1.53000000      1.10100000 #  c2        c3h         hc   
3         2.68680000     20.40330000      1.53000000      1.42000000 #  c2        c3h        o3e   
4        47.05790000     31.07710000      1.50100000      1.41700000 #  c2         cp         cp   
5         0.00000000      0.00000000      1.42000000      1.37680000 #  c2         oc         cp   
6        47.05790000     31.07710000      1.50100000      1.41700000 #  c3         cp         cp   
7        20.75400000     11.42100000      1.53000000      1.10100000 #  c3h        c2         hc   
8         2.68680000     20.40330000      1.53000000      1.42000000 #  c3h        c2         oc   
9        20.75400000     11.42100000      1.53000000      1.10100000 #  c3h       c3h         hc   
10        2.68680000     20.40330000      1.53000000      1.42000000 #  c3h       c3h        o3e   
11       -2.81120000     -2.81120000      1.42000000      1.42000000 #  c3h       o3e        c3h   
12       28.87080000     28.87080000      1.41700000      1.41700000 #  cp         cp         cp   
13       39.40400000     73.65480000      1.41700000      1.39120000 #  cp         cp         nn   
14       38.57040000     16.55240000      1.39120000      1.00120000 #  cp         nn         hn   
15       18.10300000     18.10300000      1.10100000      1.10100000 #  hc         c2         hc   
16        4.61890000     55.32700000      1.10100000      1.42000000 #  hc         c2         oc   
17       18.10300000     18.10300000      1.10100000      1.10100000 #  hc        c3h         hc   
18        4.61890000     55.32700000      1.10100000      1.42000000 #  hc        c3h        o3e   
19       17.15970000     17.15970000      1.00120000      1.00120000 #  hn         nn         hn   

AngleAngleTorsion Coeffs  # class2

1       -12.56400000    110.77000000    110.77000000 #  hc         c2       c3h         hc   
2       -20.20060000    110.77000000    111.27000000 #  hc         c2       c3h        o3e   
3         0.00000000    111.27000000    102.96950000 #  c3h        c2        oc         cp   
4       -16.16400000    112.67000000    110.77000000 #  c3h       c3h        c2         hc   
5       -20.20060000    110.77000000    111.27000000 #  hc        c3h        c2         oc   
6       -14.04840000    111.27000000    111.27000000 #  o3e       c3h        c2         oc   
7       -29.04200000    112.67000000    111.27000000 #  c3h       c3h        c2         oc   
8       -12.56400000    110.77000000    110.77000000 #  hc        c3h       c3h         hc   
9       -16.16400000    112.67000000    110.77000000 #  c2        c3h       c3h         hc   
10      -20.20060000    110.77000000    111.27000000 #  hc        c3h       c3h        o3e   
11      -29.04200000    112.67000000    111.27000000 #  c2        c3h       c3h        o3e   
12      -19.00590000    111.27000000    104.50000000 #  c2        c3h       o3e        c3h   
13      -14.40970000    120.05000000    118.90000000 #  c3         cp        cp         cp   
14      -14.40970000    120.05000000    118.90000000 #  c2         cp        cp         cp   
15        0.00000000    118.90000000    118.90000000 #  cp         cp        cp         cp   
16        0.00000000    118.90000000    121.45840000 #  cp         cp        cp         nn   
17        0.00000000    120.05000000    121.45840000 #  c3         cp        cp         nn   
18        0.00000000    120.05000000    121.45840000 #  c2         cp        cp         nn   
19       -7.17550000    121.45840000    111.87250000 #  cp         cp        nn         hn   
20      -16.44380000    108.72800000    104.50000000 #  hc        c3h       o3e        c3h   
21        0.00000000    108.72800000    102.96950000 #  hc         c2        oc         cp   

EndBondTorsion Coeffs  # class2

1         0.21300000      0.31200000      0.07770000      0.21300000      0.31200000      0.07770000      1.10100000      1.10100000 #  hc         c2       c3h         hc   
2         0.96810000      0.95510000      0.04360000      0.59030000      0.66690000      0.85840000      1.10100000      1.42000000 #  hc         c2       c3h        o3e   
3         0.00000000      0.00000000      0.00000000      0.00000000      0.00000000      0.00000000      1.53000000      1.37680000 #  c3h        c2        oc         cp   
4         0.24860000      0.24220000     -0.09250000      0.08140000      0.05910000      0.22190000      1.53000000      1.10100000 #  c3h       c3h        c2         hc   
5         0.96810000      0.95510000      0.04360000      0.59030000      0.66690000      0.85840000      1.10100000      1.42000000 #  hc        c3h        c2         oc   
6         1.01650000      0.75530000     -0.46090000      1.01650000      0.75530000     -0.46090000      1.42000000      1.42000000 #  o3e       c3h        c2         oc   
7        -0.31900000      0.44110000     -0.71740000      1.15380000      0.84090000     -0.91380000      1.53000000      1.42000000 #  c3h       c3h        c2         oc   
8         0.21300000      0.31200000      0.07770000      0.21300000      0.31200000      0.07770000      1.10100000      1.10100000 #  hc        c3h       c3h         hc   
9         0.24860000      0.24220000     -0.09250000      0.08140000      0.05910000      0.22190000      1.53000000      1.10100000 #  c2        c3h       c3h         hc   
10        0.96810000      0.95510000      0.04360000      0.59030000      0.66690000      0.85840000      1.10100000      1.42000000 #  hc        c3h       c3h        o3e   
11       -0.31900000      0.44110000     -0.71740000      1.15380000      0.84090000     -0.91380000      1.53000000      1.42000000 #  c2        c3h       c3h        o3e   
12       -0.24560000      1.05170000     -0.77950000      0.47410000      1.26350000      0.55760000      1.53000000      1.42000000 #  c2        c3h       o3e        c3h   
13        0.00000000      0.24210000      0.00000000      0.00000000     -0.69180000      0.00000000      1.50100000      1.41700000 #  c3         cp        cp         cp   
14        0.00000000      0.24210000      0.00000000      0.00000000     -0.69180000      0.00000000      1.50100000      1.41700000 #  c2         cp        cp         cp   
15       -0.11850000      6.32040000      0.00000000     -0.11850000      6.32040000      0.00000000      1.41700000      1.41700000 #  cp         cp        cp         cp   
16        0.00000000     -6.54040000      0.00000000      0.00000000     -7.34770000      0.00000000      1.41700000      1.39120000 #  cp         cp        cp         nn   
17        0.00000000      0.00000000      0.00000000      0.00000000      0.00000000      0.00000000      1.50100000      1.39120000 #  c3         cp        cp         nn   
18        0.00000000      0.00000000      0.00000000      0.00000000      0.00000000      0.00000000      1.50100000      1.39120000 #  c2         cp        cp         nn   
19        0.00000000     -3.72810000      0.00000000      0.00000000      0.28490000      0.00000000      1.41700000      1.00120000 #  cp         cp        nn         hn   
20       -0.60540000      1.33390000      0.96480000     -0.16200000      0.15640000     -1.14080000      1.10100000      1.42000000 #  hc        c3h       o3e        c3h   
21        0.00000000      0.00000000      0.00000000      0.00000000      0.00000000      0.00000000      1.10100000      1.37680000 #  hc         c2        oc         cp   

MiddleBondTorsion Coeffs  # class2

1       -14.26100000     -0.53220000     -0.48640000      1.53000000 #  hc         c2       c3h         hc   
2       -16.79750000     -1.22960000     -0.27500000      1.53000000 #  hc         c2       c3h        o3e   
3         0.00000000      0.00000000      0.00000000      1.42000000 #  c3h        c2        oc         cp   
4       -14.87900000     -3.65810000     -0.31380000      1.53000000 #  c3h       c3h        c2         hc   
5       -16.79750000     -1.22960000     -0.27500000      1.53000000 #  hc        c3h        c2         oc   
6       -17.25850000     -3.61570000     -0.83640000      1.53000000 #  o3e       c3h        c2         oc   
7       -21.88420000     -7.67640000     -0.68680000      1.53000000 #  c3h       c3h        c2         oc   
8       -14.26100000     -0.53220000     -0.48640000      1.53000000 #  hc        c3h       c3h         hc   
9       -14.87900000     -3.65810000     -0.31380000      1.53000000 #  c2        c3h       c3h         hc   
10      -16.79750000     -1.22960000     -0.27500000      1.53000000 #  hc        c3h       c3h        o3e   
11      -21.88420000     -7.67640000     -0.68680000      1.53000000 #  c2        c3h       c3h        o3e   
12       -5.92880000     -2.70070000     -0.31750000      1.42000000 #  c2        c3h       o3e        c3h   
13        0.00000000      9.17920000      0.00000000      1.41700000 #  c3         cp        cp         cp   
14        0.00000000      9.17920000      0.00000000      1.41700000 #  c2         cp        cp         cp   
15       27.59890000     -2.31200000      0.00000000      1.41700000 #  cp         cp        cp         cp   
16        0.00000000     -0.56930000      0.00000000      1.41700000 #  cp         cp        cp         nn   
17        0.00000000      0.00000000      0.00000000      1.41700000 #  c3         cp        cp         nn   
18        0.00000000      0.00000000      0.00000000      1.41700000 #  c2         cp        cp         nn   
19        0.00000000      3.20850000      0.00000000      1.39120000 #  cp         cp        nn         hn   
20       -6.80070000     -4.65460000     -1.41010000      1.42000000 #  hc        c3h       o3e        c3h   
21        0.00000000      0.00000000      0.00000000      1.42000000 #  hc         c2        oc         cp   

BondBond13 Coeffs  # class2

1         0.00000000      1.10100000      1.10100000 #  hc         c2       c3h         hc   
2         0.00000000      1.10100000      1.42000000 #  hc         c2       c3h        o3e   
3         0.00000000      1.53000000      1.37680000 #  c3h        c2        oc         cp   
4         0.00000000      1.53000000      1.10100000 #  c3h       c3h        c2         hc   
5         0.00000000      1.10100000      1.42000000 #  hc        c3h        c2         oc   
6         0.00000000      1.42000000      1.42000000 #  o3e       c3h        c2         oc   
7         0.00000000      1.53000000      1.42000000 #  c3h       c3h        c2         oc   
8         0.00000000      1.10100000      1.10100000 #  hc        c3h       c3h         hc   
9         0.00000000      1.53000000      1.10100000 #  c2        c3h       c3h         hc   
10        0.00000000      1.10100000      1.42000000 #  hc        c3h       c3h        o3e   
11        0.00000000      1.53000000      1.42000000 #  c2        c3h       c3h        o3e   
12        0.00000000      1.53000000      1.42000000 #  c2        c3h       o3e        c3h   
13        2.50850000      1.50100000      1.41700000 #  c3         cp        cp         cp   
14        2.50850000      1.50100000      1.41700000 #  c2         cp        cp         cp   
15       53.00000000      1.41700000      1.41700000 #  cp         cp        cp         cp   
16       -9.79990000      1.41700000      1.39120000 #  cp         cp        cp         nn   
17        0.00000000      1.50100000      1.39120000 #  c3         cp        cp         nn   
18        0.00000000      1.50100000      1.39120000 #  c2         cp        cp         nn   
19        4.23660000      1.41700000      1.00120000 #  cp         cp        nn         hn   
20        0.00000000      1.10100000      1.42000000 #  hc        c3h       o3e        c3h   
21        0.00000000      1.10100000      1.37680000 #  hc         c2        oc         cp   

AngleTorsion Coeffs  # class2

1        -0.80850000      0.55690000     -0.24660000     -0.80850000      0.55690000     -0.24660000    110.77000000    110.77000000 #  hc         c2       c3h         hc   
2         2.36680000      2.49200000     -1.01220000     -0.18920000      0.49180000      0.72730000    110.77000000    111.27000000 #  hc         c2       c3h        o3e   
3         0.00000000      0.00000000      0.00000000      0.00000000      0.00000000      0.00000000    111.27000000    102.96950000 #  c3h        c2        oc         cp   
4        -0.24540000      0.00000000     -0.11360000      0.31130000      0.45160000     -0.19880000    112.67000000    110.77000000 #  c3h       c3h        c2         hc   
5         2.36680000      2.49200000     -1.01220000     -0.18920000      0.49180000      0.72730000    110.77000000    111.27000000 #  hc        c3h        c2         oc   
6         0.55110000      0.97370000     -0.66730000      0.55110000      0.97370000     -0.66730000    111.27000000    111.27000000 #  o3e       c3h        c2         oc   
7         0.56230000     -0.30410000     -0.40150000      0.96720000     -0.75660000     -1.23310000    112.67000000    111.27000000 #  c3h       c3h        c2         oc   
8        -0.80850000      0.55690000     -0.24660000     -0.80850000      0.55690000     -0.24660000    110.77000000    110.77000000 #  hc        c3h       c3h         hc   
9        -0.24540000      0.00000000     -0.11360000      0.31130000      0.45160000     -0.19880000    112.67000000    110.77000000 #  c2        c3h       c3h         hc   
10        2.36680000      2.49200000     -1.01220000     -0.18920000      0.49180000      0.72730000    110.77000000    111.27000000 #  hc        c3h       c3h        o3e   
11        0.56230000     -0.30410000     -0.40150000      0.96720000     -0.75660000     -1.23310000    112.67000000    111.27000000 #  c2        c3h       c3h        o3e   
12       -2.74660000      1.48770000     -0.89550000      0.56760000      0.94500000      0.07030000    111.27000000    104.50000000 #  c2        c3h       o3e        c3h   
13        0.00000000     -4.46830000      0.00000000      0.00000000      3.89870000      0.00000000    120.05000000    118.90000000 #  c3         cp        cp         cp   
14        0.00000000     -4.46830000      0.00000000      0.00000000      3.89870000      0.00000000    120.05000000    118.90000000 #  c2         cp        cp         cp   
15        1.97670000      1.02390000      0.00000000      1.97670000      1.02390000      0.00000000    118.90000000    118.90000000 #  cp         cp        cp         cp   
16        0.00000000      9.09010000      0.00000000      0.00000000     -6.08820000      0.00000000    118.90000000    121.45840000 #  cp         cp        cp         nn   
17        0.00000000      0.00000000      0.00000000      0.00000000      0.00000000      0.00000000    120.05000000    121.45840000 #  c3         cp        cp         nn   
18        0.00000000      0.00000000      0.00000000      0.00000000      0.00000000      0.00000000    120.05000000    121.45840000 #  c2         cp        cp         nn   
19        0.00000000      1.26160000      0.00000000      0.00000000      0.77440000      0.00000000    121.45840000    111.87250000 #  cp         cp        nn         hn   
20       -1.82340000      1.63930000      0.51440000     -0.77770000      0.43400000     -0.66530000    108.72800000    104.50000000 #  hc        c3h       o3e        c3h   
21        0.00000000      0.00000000      0.00000000      0.00000000      0.00000000      0.00000000    108.72800000    102.96950000 #  hc         c2        oc         cp   

AngleAngle Coeffs  # class2

1         0.00000000      0.00000000      0.00000000    120.05000000    118.90000000    120.05000000 #  c2         cp        cp        cp      nb==3   
2         0.00000000      0.00000000      0.00000000    120.05000000    118.90000000    120.05000000 #  c3         cp        cp        cp      nb==3   
3         0.00000000      0.00000000      0.00000000    118.90000000    121.45840000    121.45840000 #  cp         cp        cp        nn      nb==3   
4         0.00000000      0.00000000      0.00000000    111.87250000    107.51300000    111.87250000 #  cp         nn        hn        hn      nb==3   
5        -1.31990000     -1.31990000      0.11840000    112.67000000    110.77000000    110.77000000 #  c2        c3h       c3h        hc      nb!=3   
6        -0.83300000     -0.83300000     -3.57440000    112.67000000    111.27000000    111.27000000 #  c2        c3h       c3h       o3e      nb!=3   
7         3.91770000      2.59260000      0.16890000    110.77000000    111.27000000    108.72800000 #  c2        c3h        hc       o3e      nb!=3   
8         0.27380000     -0.48250000      0.27380000    110.77000000    110.77000000    107.66000000 #  c3h        c2        hc        hc      nb!=3   
9         3.91770000      2.59260000      0.16890000    110.77000000    111.27000000    108.72800000 #  c3h        c2        hc        oc      nb!=3   
10        0.27380000     -0.48250000      0.27380000    110.77000000    110.77000000    107.66000000 #  c3h       c3h        hc        hc      nb!=3   
11        3.91770000      2.59260000      0.16890000    110.77000000    111.27000000    108.72800000 #  c3h       c3h        hc       o3e      nb!=3   
12        2.42590000      2.42590000      2.12830000    107.66000000    108.72800000    108.72800000 #  hc         c2        hc        oc      nb!=3   
13        2.42590000      2.42590000      2.12830000    107.66000000    108.72800000    108.72800000 #  hc        c3h        hc       o3e      nb!=3   

Atoms # full

  1     1   4    0.026500   -3.475395238    -1.804100000     2.887809524      0    0    0 #  cp/C
  2     1   9   -0.159500   -3.797495238    -1.200000000     1.664309524      0    0    0 #  oc/O
  3     1   1    0.027000   -3.077395238     0.001400000     1.603509524      0    0    0 #  c2/C
  4     1   3    0.080000   -3.379795238     0.703400000     0.307109524      0    0    0 #  c3h/C
  5     1   3    0.027000   -2.320195238     0.827400000    -0.751290476      0    0    0 #  c3h/C
  6     1   8   -0.266000   -2.761895238     1.961200000     0.006209524      0    0    0 #  o3e/O
  7     1   5    0.053000   -3.372395238     0.653700000     2.455609524      0    0    0 #  hc/H
  8     1   5    0.053000   -1.987395238    -0.216300000     1.661809524      0    0    0 #  hc/H
  9     1   5    0.053000   -4.398895238     0.327200000     0.347309524      0    0    0 #  hc/H
  10    1   5    0.053000   -2.582795238     0.735300000    -1.802090476      0    0    0 #  hc/H
  11    1   5    0.053000   -1.363895238     0.352000000    -0.954090476      0    0    0 #  hc/H
  12    2   1    0.000000    2.290404762    -2.057500000     0.540009524      0    0    0 #  c2/C
  13    2   4    0.000000    2.657704762    -1.405300000    -0.756490476      0    0    0 #  cp/C
  14    2   4    0.000000    2.329704762    -1.987800000    -1.914290476      0    0    0 #  cp/C
  15    2   2    0.000000    3.367604762     2.214600000    -0.756490476      0    0    0 #  c3/C
  16    2   4    0.000000    2.633004762     0.910300000    -0.756490476      0    0    0 #  cp/C
  17    2   4    0.082700    3.313804762    -0.240400000    -0.756490476      0    0    0 #  cp/C
  18    2   7   -0.580100    4.579804762    -0.226900000    -0.756490476      0    0    0 #  nn/N
  19    2   4    0.000000    1.136104762     0.894300000    -0.756490476      0    0    0 #  cp/C
  20    2   6    0.248700    5.114404762    -1.130500000    -0.756490476      0    0    0 #  hn/H
  21    2   6    0.248700    5.095004762     0.688000000    -0.756490476      0    0    0 #  hn/H

Bonds
